                               Psi4 1.6 release

  ==> Input File <==

--------------------------------------------------------------------------
molecule {
0 1
C       -1.42104800226902   -1.5632453984335217    0.0000000000
N        0.07459757258374447    0.0821504320373475    0.0000000000
H        1.3464504296852755    1.4810949663961743    0.0000000000
units bohr
}

set basis 6-31g
gradient('hf')
--------------------------------------------------------------------------

    Molecular point group: cs
  Charge       = 0
  Multiplicity = 1
  Basis Set: 6-31G
    Blend: 6-31G
  Basis Set: (6-31G AUX)
    Blend: CC-PVDZ-JKFIT

    Orbital Energies [Eh]
    ---------------------

    Doubly Occupied:

       1Ap   -15.609351     2Ap   -11.318576     3Ap    -1.273157
       4Ap    -0.870382     5Ap    -0.514147     1App   -0.514147
       6Ap    -0.482571

  @DF-RHF Final Energy:   -92.81418783339808

   => Energetics <=

    Nuclear Repulsion Energy =             24.0492321605871702
    One-Electron Energy =                -172.5621770755440423
    Two-Electron Energy =                  55.6987570815587958
    Total Energy =                        -92.8141878333980799
 Dipole X            :          0.0000127            0.0000808            0.0000935
 Dipole Y            :          0.0000000            0.0000000            0.0000000
 Dipole Z            :         -0.3306964            1.3915978            1.0609013
 Magnitude           :                                                    1.0609013
    Molecular point group: cs

    Geometry (in Bohr), charge = 0, multiplicity = 1:

       Center              X                  Y                   Z               Mass
    ------------   -----------------  -----------------  -----------------  -----------------
         C           -0.000006312433     0.000000000000    -1.306262384752    12.000000000000
         N           -0.000006312433     0.000000000000     0.917312017985    14.003074004430
         H            0.000162868220     0.000000000000     2.807987947833     1.007825032230

  Basis Set: 6-31G
    Blend: 6-31G
  Basis Set: (6-31G AUX)
    Blend: CC-PVDZ-JKFIT

  -Total Gradient:
     Atom            X                  Y                   Z
    ------   -----------------  -----------------  -----------------
       1        0.000001590153     0.000000000000    -0.025514189457
       2       -0.000005334362     0.000000000000     0.004570977455
       3        0.000003744209     0.000000000000     0.020943212002

*** Psi4 exiting successfully. Buy a developer a beer!
