                               Psi4 1.6 release
    Molecular point group: c1
  Charge       = -1
  Multiplicity = 1
  Basis Set: 6-31G
    Blend: 6-31G
  Basis Set: (6-31G AUX)
    Blend: CC-PVDZ-JKFIT
  @DF-RHF Final Energy:  -169.05412250446551
    Total Energy =                       -169.0541225044655107
 Dipole X            :         -7.0255518            6.1857704           -0.8397814
 Dipole Y            :        -27.8179765           24.4937070           -3.3242695
 Dipole Z            :        -26.3956576           23.2411616           -3.1544960
 Magnitude           :                                                    4.6590606
    Molecular point group: c1
  Basis Set: 6-31G
    Blend: 6-31G
  Basis Set: (6-31G AUX)
    Blend: CC-PVDZ-JKFIT
*** Psi4 exiting successfully. Buy a developer a beer!
                               Psi4 1.6 release
  Basis Set: 6-31G
    Blend: 6-31G
  Basis Set: (6-31G AUX)
    Blend: CC-PVDZ-JKFIT
  @DF-RHF Final Energy:  -168.99883413874733
    Total Energy =                       -168.9988341387473270
  Basis Set: 6-31G
    Blend: 6-31G
  Basis Set: (6-31G AUX)
    Blend: CC-PVDZ-JKFIT
*** Psi4 exiting successfully. Buy a developer a beer!
                               Psi4 1.6 release
  Basis Set: 6-31G
    Blend: 6-31G
  @DF-RHF Final Energy:  -169.00322743833499
    Total Energy =                       -169.0032274383349886
                               Psi4 1.6 release
  @DF-RHF Final Energy:  -169.00853082218364
    Total Energy =                       -169.0085308221836442
                               Psi4 1.6 release
  @DF-RHF Final Energy:  -168.99106168295407
    Total Energy =                       -168.9910616829540686
                               Psi4 1.6 release
  @DF-RHF Final Energy:  -168.97260435215793
    Total Energy =                       -168.9726043521579300
                               Psi4 1.6 release
  @DF-RHF Final Energy:  -168.95219709875386
    Total Energy =                       -168.9521970987538566
                               Psi4 1.6 release
  @DF-RHF Final Energy:  -168.94584546333172
    Total Energy =                       -168.9458454633317217
                               Psi4 1.6 release
  @DF-RHF Final Energy:  -168.94178539881079
    Total Energy =                       -168.9417853988107936
  Basis Set: (6-31G AUX)
    Blend: CC-PVDZ-JKFIT
                               Psi4 1.6 release
  Basis Set: 6-31G
    Blend: 6-31G
  Basis Set: (6-31G AUX)
    Blend: CC-PVDZ-JKFIT
  @DF-RHF Final Energy:  -168.97857781145262
    Total Energy =                       -168.9785778114526238
  Basis Set: 6-31G
    Blend: 6-31G
  Basis Set: (6-31G AUX)
    Blend: CC-PVDZ-JKFIT
*** Psi4 exiting successfully. Buy a developer a beer!
                               Psi4 1.6 release
    Molecular point group: c1
  Charge       = -1
  Multiplicity = 1
  Basis Set: 6-31G
    Blend: 6-31G
  Basis Set: (6-31G AUX)
    Blend: CC-PVDZ-JKFIT

    Orbital Energies [Eh]
    ---------------------

    Doubly Occupied:

       1A    -15.382881     2A    -11.095184     3A    -11.024080
       4A    -10.994472     5A     -1.046223     6A     -0.825739
       7A     -0.599691     8A     -0.460992     9A     -0.358521
      10A     -0.333976    11A     -0.315021    12A     -0.260703
      13A     -0.134264    14A     -0.104247

  @DF-RHF Final Energy:  -169.04502809870382

   => Energetics <=

    Nuclear Repulsion Energy =             82.7130420311759167
    One-Electron Energy =                -397.6441511368607848
    Two-Electron Energy =                 145.8860810069810441
    Total Energy =                       -169.0450280987038241
 Dipole X            :         -8.1095791            7.8537242           -0.2558549
 Dipole Y            :         -8.8835869            9.1710028            0.2874160
 Dipole Z            :        -13.9965597           13.9578373           -0.0387223
 Magnitude           :                                                    0.3867416
    Molecular point group: c1

    Geometry (in Bohr), charge = -1, multiplicity = 1:

       Center              X                  Y                   Z               Mass
    ------------   -----------------  -----------------  -----------------  -----------------
         C           -0.495402380000    -1.960713720000    -1.861348230000    12.000000000000
         C           -0.830318700000     0.273908320000    -0.594765730000    12.000000000000
         H           -2.336960160000     1.549918150000    -1.120730370000     1.007825032230
         H            1.139292890000    -2.996735880000    -1.041789720000     1.007825032230
         C            0.658000470000     1.196708930000     1.473397160000    12.000000000000
         N            1.865387880000     1.936914200000     3.145236890000    14.003074004430

  Basis Set: 6-31G
    Blend: 6-31G
  Basis Set: (6-31G AUX)
    Blend: CC-PVDZ-JKFIT

  -Total Gradient:
     Atom            X                  Y                   Z
    ------   -----------------  -----------------  -----------------
       1        0.000033138754     0.000025372861    -0.000007879420
       2       -0.000016700342    -0.000016309070    -0.000029345453
       3        0.000000997807    -0.000009293796     0.000027868120
       4       -0.000023109176    -0.000009713470     0.000018817815
       5        0.000020067542     0.000027181906     0.000009482286
       6       -0.000014394585    -0.000017238430    -0.000018943347

*** Psi4 exiting successfully. Buy a developer a beer!
