                               Psi4 1.6 release
    Molecular point group: cs
  Charge       = 0
  Multiplicity = 1
  Basis Set: 6-31G
    Blend: 6-31G
  Basis Set: (6-31G AUX)
    Blend: CC-PVDZ-JKFIT
  @DF-RHF Final Energy:   -92.81487415198454
    Total Energy =                        -92.8148741519845260
 Dipole X            :          7.2566619           -6.5433799            0.7132820
 Dipole Y            :          7.9824198           -7.1978147            0.7846052
 Dipole Z            :          0.0000000            0.0000000            0.0000000
 Magnitude           :                                                    1.0603662
    Molecular point group: cs
  Basis Set: 6-31G
    Blend: 6-31G
  Basis Set: (6-31G AUX)
    Blend: CC-PVDZ-JKFIT
*** Psi4 exiting successfully. Buy a developer a beer!
                               Psi4 1.6 release
  Basis Set: 6-31G
    Blend: 6-31G
  Basis Set: (6-31G AUX)
    Blend: CC-PVDZ-JKFIT
  @DF-RHF Final Energy:   -92.80394921182085
    Total Energy =                        -92.8039492118208500
  Basis Set: 6-31G
    Blend: 6-31G
  Basis Set: (6-31G AUX)
    Blend: CC-PVDZ-JKFIT
*** Psi4 exiting successfully. Buy a developer a beer!
                               Psi4 1.6 release
  Basis Set: 6-31G
    Blend: 6-31G
  @DF-RHF Final Energy:   -92.77236148946393
    Total Energy =                        -92.7723614894639326
                               Psi4 1.6 release
  @DF-RHF Final Energy:   -92.74290553186221
    Total Energy =                        -92.7429055318622062
                               Psi4 1.6 release
  @DF-RHF Final Energy:   -92.72360640048247
    Total Energy =                        -92.7236064004824669
                               Psi4 1.6 release
  @DF-RHF Final Energy:   -92.76187144243617
    Total Energy =                        -92.7618714424361599
                               Psi4 1.6 release
  @DF-RHF Final Energy:   -92.82002793476003
    Total Energy =                        -92.8200279347600343
                               Psi4 1.6 release
  @DF-RHF Final Energy:   -92.82821188959466
    Total Energy =                        -92.8282118895946553
                               Psi4 1.6 release
  @DF-RHF Final Energy:   -92.82821529074377
    Total Energy =                        -92.8282152907437705
  Basis Set: (6-31G AUX)
    Blend: CC-PVDZ-JKFIT
                               Psi4 1.6 release
  Basis Set: 6-31G
    Blend: 6-31G
  Basis Set: (6-31G AUX)
    Blend: CC-PVDZ-JKFIT
  @DF-RHF Final Energy:   -92.82821581870826
    Total Energy =                        -92.8282158187082587
  Basis Set: 6-31G
    Blend: 6-31G
  Basis Set: (6-31G AUX)
    Blend: CC-PVDZ-JKFIT
*** Psi4 exiting successfully. Buy a developer a beer!
                               Psi4 1.6 release
    Molecular point group: cs
  Charge       = 0
  Multiplicity = 1
  Basis Set: 6-31G
    Blend: 6-31G
  Basis Set: (6-31G AUX)
    Blend: CC-PVDZ-JKFIT

    Orbital Energies [Eh]
    ---------------------

    Doubly Occupied:

       1Ap   -15.621846     2Ap   -11.302340     3Ap    -1.270872
       4Ap    -0.809678     5Ap    -0.574114     6Ap    -0.501280
       1App   -0.501280

  @DF-RHF Final Energy:   -92.82821583358975

   => Energetics <=

    Nuclear Repulsion Energy =             24.1278009986126740
    One-Electron Energy =                -172.7492148635600699
    Two-Electron Energy =                  55.7931980313576261
    Total Energy =                        -92.8282158335897520
 Dipole X            :          9.1579646           -8.3001194            0.8578452
 Dipole Y            :         10.0736328           -9.1300152            0.9436176
 Dipole Z            :          0.0000000            0.0000000            0.0000000
 Magnitude           :                                                    1.2752696
    Molecular point group: cs

    Geometry (in Bohr), charge = 0, multiplicity = 1:

       Center              X                  Y                   Z               Mass
    ------------   -----------------  -----------------  -----------------  -----------------
         C            0.038755800000     0.042630240000     0.000000000000    12.000000000000
         N           -1.415649730000    -1.557194400000     0.000000000000    14.003074004430
         H            1.376893930000     1.514564170000     0.000000000000     1.007825032230

  Basis Set: 6-31G
    Blend: 6-31G
  Basis Set: (6-31G AUX)
    Blend: CC-PVDZ-JKFIT

  -Total Gradient:
     Atom            X                  Y                   Z
    ------   -----------------  -----------------  -----------------
       1        0.000036894964     0.000040512768     0.000000000000
       2       -0.000027059468    -0.000029730983     0.000000000000
       3       -0.000009835495    -0.000010781785     0.000000000000

*** Psi4 exiting successfully. Buy a developer a beer!
